TITLE = VORTICITY
VARIABLES= X,Y,VORTICITY
ZONE T=BLOCK I=128 J=128,F=POINT
0.000000	0.000000	0.000000
0.007874	0.000000	-0.000947
0.015748	0.000000	-0.003625
0.023622	0.000000	-0.006945
0.031496	0.000000	-0.010024
0.039370	0.000000	-0.012290
0.047244	0.000000	-0.013395
0.055118	0.000000	-0.013145
0.062992	0.000000	-0.011441
0.070866	0.000000	-0.008248
0.078740	0.000000	-0.003574
0.086614	0.000000	0.002545
0.094488	0.000000	0.010054
0.102362	0.000000	0.018887
0.110236	0.000000	0.028968
0.118110	0.000000	0.040217
0.125984	0.000000	0.052551
0.133858	0.000000	0.065890
0.141732	0.000000	0.080149
0.149606	0.000000	0.095250
0.157480	0.000000	0.111114
0.165354	0.000000	0.127666
0.173228	0.000000	0.144833
0.181102	0.000000	0.162546
0.188976	0.000000	0.180739
0.196850	0.000000	0.199349
0.204724	0.000000	0.218315
0.212598	0.000000	0.237580
0.220472	0.000000	0.257090
0.228346	0.000000	0.276792
0.236220	0.000000	0.296637
0.244094	0.000000	0.316576
0.251969	0.000000	0.336563
0.259843	0.000000	0.356554
0.267717	0.000000	0.376504
0.275591	0.000000	0.396372
0.283465	0.000000	0.416116
0.291339	0.000000	0.435695
0.299213	0.000000	0.455069
0.307087	0.000000	0.474196
0.314961	0.000000	0.493038
0.322835	0.000000	0.511554
0.330709	0.000000	0.529703
0.338583	0.000000	0.547446
0.346457	0.000000	0.564743
0.354331	0.000000	0.581552
0.362205	0.000000	0.597833
0.370079	0.000000	0.613544
0.377953	0.000000	0.628645
0.385827	0.000000	0.643093
0.393701	0.000000	0.656849
0.401575	0.000000	0.669870
0.409449	0.000000	0.682117
0.417323	0.000000	0.693548
0.425197	0.000000	0.704123
0.433071	0.000000	0.713805
0.440945	0.000000	0.722554
0.448819	0.000000	0.730334
0.456693	0.000000	0.737109
0.464567	0.000000	0.742847
0.472441	0.000000	0.747515
0.480315	0.000000	0.751083
0.488189	0.000000	0.753525
0.496063	0.000000	0.754815
0.503937	0.000000	0.754934
0.511811	0.000000	0.753862
0.519685	0.000000	0.751584
0.527559	0.000000	0.748090
0.535433	0.000000	0.743373
0.543307	0.000000	0.737429
0.551181	0.000000	0.730260
0.559055	0.000000	0.721872
0.566929	0.000000	0.712275
0.574803	0.000000	0.701486
0.582677	0.000000	0.689525
0.590551	0.000000	0.676416
0.598425	0.000000	0.662192
0.606299	0.000000	0.646888
0.614173	0.000000	0.630545
0.622047	0.000000	0.613209
0.629921	0.000000	0.594931
0.637795	0.000000	0.575768
0.645669	0.000000	0.555781
0.653543	0.000000	0.535035
0.661417	0.000000	0.513600
0.669291	0.000000	0.491551
0.677165	0.000000	0.468966
0.685039	0.000000	0.445926
0.692913	0.000000	0.422515
0.700787	0.000000	0.398823
0.708661	0.000000	0.374938
0.716535	0.000000	0.350953
0.724409	0.000000	0.326961
0.732283	0.000000	0.303057
0.740157	0.000000	0.279336
0.748031	0.000000	0.255893
0.755906	0.000000	0.232823
0.763780	0.000000	0.210220
0.771654	0.000000	0.188176
0.779528	0.000000	0.166780
0.787402	0.000000	0.146121
0.795276	0.000000	0.126283
0.803150	0.000000	0.107346
0.811024	0.000000	0.089388
0.818898	0.000000	0.072481
0.826772	0.000000	0.056692
0.834646	0.000000	0.042081
0.842520	0.000000	0.028705
0.850394	0.000000	0.016610
0.858268	0.000000	0.005839
0.866142	0.000000	-0.003576
0.874016	0.000000	-0.011612
0.881890	0.000000	-0.018252
0.889764	0.000000	-0.023495
0.897638	0.000000	-0.027348
0.905512	0.000000	-0.029834
0.913386	0.000000	-0.030991
0.921260	0.000000	-0.030875
0.929134	0.000000	-0.029567
0.937008	0.000000	-0.027175
0.944882	0.000000	-0.023843
0.952756	0.000000	-0.019761
0.960630	0.000000	-0.015181
0.968504	0.000000	-0.010437
0.976378	0.000000	-0.005973
0.984252	0.000000	-0.002357
0.992126	0.000000	-0.000239
1.000000	0.000000	0.000000
0.000000	0.007874	-0.000947
0.007874	0.007874	-0.001734
0.015748	0.007874	-0.002520
0.023622	0.007874	-0.003416
0.031496	0.007874	-0.004110
0.039370	0.007874	-0.004259
0.047244	0.007874	-0.003590
0.055118	0.007874	-0.001916
0.062992	0.007874	0.000882
0.070866	0.007874	0.004870
0.078740	0.007874	0.010072
0.086614	0.007874	0.016485
0.094488	0.007874	0.024083
0.102362	0.007874	0.032826
0.110236	0.007874	0.042663
0.118110	0.007874	0.053537
0.125984	0.007874	0.065383
0.133858	0.007874	0.078138
0.141732	0.007874	0.091732
0.149606	0.007874	0.106099
0.157480	0.007874	0.121172
0.165354	0.007874	0.136886
0.173228	0.007874	0.153176
0.181102	0.007874	0.169980
0.188976	0.007874	0.187238
0.196850	0.007874	0.204891
0.204724	0.007874	0.222884
0.212598	0.007874	0.241164
0.220472	0.007874	0.259678
0.228346	0.007874	0.278376
0.236220	0.007874	0.297210
0.244094	0.007874	0.316135
0.251969	0.007874	0.335104
0.259843	0.007874	0.354075
0.267717	0.007874	0.373004
0.275591	0.007874	0.391850
0.283465	0.007874	0.410572
0.291339	0.007874	0.429130
0.299213	0.007874	0.447483
0.307087	0.007874	0.465594
0.314961	0.007874	0.483422
0.322835	0.007874	0.500928
0.330709	0.007874	0.518074
0.338583	0.007874	0.534820
0.346457	0.007874	0.551129
0.354331	0.007874	0.566960
0.362205	0.007874	0.582276
0.370079	0.007874	0.597037
0.377953	0.007874	0.611205
0.385827	0.007874	0.624740
0.393701	0.007874	0.637606
0.401575	0.007874	0.649763
0.409449	0.007874	0.661174
0.417323	0.007874	0.671802
0.425197	0.007874	0.681611
0.433071	0.007874	0.690565
0.440945	0.007874	0.698631
0.448819	0.007874	0.705776
0.456693	0.007874	0.711968
0.464567	0.007874	0.717177
0.472441	0.007874	0.721375
0.480315	0.007874	0.724538
0.488189	0.007874	0.726641
0.496063	0.007874	0.727664
0.503937	0.007874	0.727589
0.511811	0.007874	0.726401
0.519685	0.007874	0.724088
0.527559	0.007874	0.720642
0.535433	0.007874	0.716059
0.543307	0.007874	0.710337
0.551181	0.007874	0.703480
0.559055	0.007874	0.695495
0.566929	0.007874	0.686393
0.574803	0.007874	0.676191
0.582677	0.007874	0.664909
0.590551	0.007874	0.652572
0.598425	0.007874	0.639209
0.606299	0.007874	0.624854
0.614173	0.007874	0.609546
0.622047	0.007874	0.593328
0.629921	0.007874	0.576247
0.637795	0.007874	0.558357
0.645669	0.007874	0.539712
0.653543	0.007874	0.520373
0.661417	0.007874	0.500404
0.669291	0.007874	0.479873
0.677165	0.007874	0.458851
0.685039	0.007874	0.437412
0.692913	0.007874	0.415633
0.700787	0.007874	0.393594
0.708661	0.007874	0.371375
0.716535	0.007874	0.349059
0.724409	0.007874	0.326732
0.732283	0.007874	0.304478
0.740157	0.007874	0.282384
0.748031	0.007874	0.260533
0.755906	0.007874	0.239013
0.763780	0.007874	0.217905
0.771654	0.007874	0.197295
0.779528	0.007874	0.177261
0.787402	0.007874	0.157883
0.795276	0.007874	0.139236
0.803150	0.007874	0.121392
0.811024	0.007874	0.104418
0.818898	0.007874	0.088380
0.826772	0.007874	0.073336
0.834646	0.007874	0.059339
0.842520	0.007874	0.046438
0.850394	0.007874	0.034673
0.858268	0.007874	0.024078
0.866142	0.007874	0.014680
0.874016	0.007874	0.006497
0.881890	0.007874	-0.000463
0.889764	0.007874	-0.006202
0.897638	0.007874	-0.010735
0.905512	0.007874	-0.014087
0.913386	0.007874	-0.016302
0.921260	0.007874	-0.017440
0.929134	0.007874	-0.017580
0.937008	0.007874	-0.016829
0.944882	0.007874	-0.015318
0.952756	0.007874	-0.013217
0.960630	0.007874	-0.010732
0.968504	0.007874	-0.008107
0.976378	0.007874	-0.005616
0.984252	0.007874	-0.003512
0.992126	0.007874	-0.001876
1.000000	0.007874	-0.000239
0.000000	0.015748	-0.003629
0.007874	0.015748	-0.002523
0.015748	0.015748	-0.001305
0.023622	0.015748	-0.000090
0.031496	0.015748	0.001258
0.039370	0.015748	0.002955
0.047244	0.015748	0.005209
0.055118	0.015748	0.008189
0.062992	0.015748	0.012016
0.070866	0.015748	0.016774
0.078740	0.015748	0.022508
0.086614	0.015748	0.029239
0.094488	0.015748	0.036965
0.102362	0.015748	0.045670
0.110236	0.015748	0.055321
0.118110	0.015748	0.065882
0.125984	0.015748	0.077305
0.133858	0.015748	0.089541
0.141732	0.015748	0.102536
0.149606	0.015748	0.116235
0.157480	0.015748	0.130581
0.165354	0.015748	0.145519
0.173228	0.015748	0.160991
0.181102	0.015748	0.176944
0.188976	0.015748	0.193322
0.196850	0.015748	0.210074
0.204724	0.015748	0.227146
0.212598	0.015748	0.244489
0.220472	0.015748	0.262054
0.228346	0.015748	0.279793
0.236220	0.015748	0.297662
0.244094	0.015748	0.315614
0.251969	0.015748	0.333607
0.259843	0.015748	0.351598
0.267717	0.015748	0.369545
0.275591	0.015748	0.387408
0.283465	0.015748	0.405147
0.291339	0.015748	0.422722
0.299213	0.015748	0.440094
0.307087	0.015748	0.457225
0.314961	0.015748	0.474077
0.322835	0.015748	0.490612
0.330709	0.015748	0.506792
0.338583	0.015748	0.522580
0.346457	0.015748	0.537940
0.354331	0.015748	0.552833
0.362205	0.015748	0.567222
0.370079	0.015748	0.581073
0.377953	0.015748	0.594347
0.385827	0.015748	0.607009
0.393701	0.015748	0.619024
0.401575	0.015748	0.630356
0.409449	0.015748	0.640971
0.417323	0.015748	0.650836
0.425197	0.015748	0.659916
0.433071	0.015748	0.668182
0.440945	0.015748	0.675601
0.448819	0.015748	0.682146
0.456693	0.015748	0.687787
0.464567	0.015748	0.692500
0.472441	0.015748	0.696260
0.480315	0.015748	0.699045
0.488189	0.015748	0.700835
0.496063	0.015748	0.701613
0.503937	0.015748	0.701364
0.511811	0.015748	0.700077
0.519685	0.015748	0.697742
0.527559	0.015748	0.694354
0.535433	0.015748	0.689911
0.543307	0.015748	0.684413
0.551181	0.015748	0.677866
0.559055	0.015748	0.670277
0.566929	0.015748	0.661659
0.574803	0.015748	0.652028
0.582677	0.015748	0.641404
0.590551	0.015748	0.629811
0.598425	0.015748	0.617278
0.606299	0.015748	0.603836
0.614173	0.015748	0.589522
0.622047	0.015748	0.574376
0.629921	0.015748	0.558442
0.637795	0.015748	0.541768
0.645669	0.015748	0.524405
0.653543	0.015748	0.506409
0.661417	0.015748	0.487838
0.669291	0.015748	0.468753
0.677165	0.015748	0.449219
0.685039	0.015748	0.429302
0.692913	0.015748	0.409072
0.700787	0.015748	0.388601
0.708661	0.015748	0.367962
0.716535	0.015748	0.347229
0.724409	0.015748	0.326478
0.732283	0.015748	0.305785
0.740157	0.015748	0.285227
0.748031	0.015748	0.264880
0.755906	0.015748	0.244820
0.763780	0.015748	0.225123
0.771654	0.015748	0.205862
0.779528	0.015748	0.187109
0.787402	0.015748	0.168933
0.795276	0.015748	0.151402
0.803150	0.015748	0.134578
0.811024	0.015748	0.118523
0.818898	0.015748	0.103293
0.826772	0.015748	0.088938
0.834646	0.015748	0.075506
0.842520	0.015748	0.063037
0.850394	0.015748	0.051566
0.858268	0.015748	0.041121
0.866142	0.015748	0.031723
0.874016	0.015748	0.023383
0.881890	0.015748	0.016106
0.889764	0.015748	0.009884
0.897638	0.015748	0.004699
0.905512	0.015748	0.000522
0.913386	0.015748	-0.002691
0.921260	0.015748	-0.005001
0.929134	0.015748	-0.006485
0.937008	0.015748	-0.007240
0.944882	0.015748	-0.007384
0.952756	0.015748	-0.007058
0.960630	0.015748	-0.006421
0.968504	0.015748	-0.005642
0.976378	0.015748	-0.004874
0.984252	0.015748	-0.004199
0.992126	0.015748	-0.003514
1.000000	0.015748	-0.002352
0.000000	0.023622	-0.006964
0.007874	0.023622	-0.003424
0.015748	0.023622	-0.000087
0.023622	0.023622	0.003102
0.031496	0.023622	0.006276
0.039370	0.023622	0.009612
0.047244	0.023622	0.013284
0.055118	0.023622	0.017446
0.062992	0.023622	0.022222
0.070866	0.023622	0.027702
0.078740	0.023622	0.033948
0.086614	0.023622	0.040998
0.094488	0.023622	0.048870
0.102362	0.023622	0.057564
0.110236	0.023622	0.067068
0.118110	0.023622	0.077359
0.125984	0.023622	0.088407
0.133858	0.023622	0.100176
0.141732	0.023622	0.112624
0.149606	0.023622	0.125707
0.157480	0.023622	0.139379
0.165354	0.023622	0.153593
0.173228	0.023622	0.168300
0.181102	0.023622	0.183452
0.188976	0.023622	0.198999
0.196850	0.023622	0.214895
0.204724	0.023622	0.231091
0.212598	0.023622	0.247541
0.220472	0.023622	0.264200
0.228346	0.023622	0.281023
0.236220	0.023622	0.297965
0.244094	0.023622	0.314985
0.251969	0.023622	0.332039
0.259843	0.023622	0.349088
0.267717	0.023622	0.366090
0.275591	0.023622	0.383006
0.283465	0.023622	0.399797
0.291339	0.023622	0.416424
0.299213	0.023622	0.432850
0.307087	0.023622	0.449038
0.314961	0.023622	0.464949
0.322835	0.023622	0.480549
0.330709	0.023622	0.495800
0.338583	0.023622	0.510666
0.346457	0.023622	0.525113
0.354331	0.023622	0.539105
0.362205	0.023622	0.552606
0.370079	0.023622	0.565584
0.377953	0.023622	0.578003
0.385827	0.023622	0.589830
0.393701	0.023622	0.601033
0.401575	0.023622	0.611578
0.409449	0.023622	0.621436
0.417323	0.023622	0.630574
0.425197	0.023622	0.638964
0.433071	0.023622	0.646577
0.440945	0.023622	0.653386
0.448819	0.023622	0.659366
0.456693	0.023622	0.664491
0.464567	0.023622	0.668740
0.472441	0.023622	0.672092
0.480315	0.023622	0.674528
0.488189	0.023622	0.676031
0.496063	0.023622	0.676589
0.503937	0.023622	0.676188
0.511811	0.023622	0.674820
0.519685	0.023622	0.672479
0.527559	0.023622	0.669161
0.535433	0.023622	0.664866
0.543307	0.023622	0.659597
0.551181	0.023622	0.653359
0.559055	0.023622	0.646163
0.566929	0.023622	0.638020
0.574803	0.023622	0.628947
0.582677	0.023622	0.618964
0.590551	0.023622	0.608094
0.598425	0.023622	0.596364
0.606299	0.023622	0.583804
0.614173	0.023622	0.570448
0.622047	0.023622	0.556333
0.629921	0.023622	0.541499
0.637795	0.023622	0.525992
0.645669	0.023622	0.509857
0.653543	0.023622	0.493144
0.661417	0.023622	0.475907
0.669291	0.023622	0.458202
0.677165	0.023622	0.440085
0.685039	0.023622	0.421617
0.692913	0.023622	0.402861
0.700787	0.023622	0.383880
0.708661	0.023622	0.364741
0.716535	0.023622	0.345508
0.724409	0.023622	0.326250
0.732283	0.023622	0.307035
0.740157	0.023622	0.287930
0.748031	0.023622	0.269004
0.755906	0.023622	0.250324
0.763780	0.023622	0.231957
0.771654	0.023622	0.213967
0.779528	0.023622	0.196418
0.787402	0.023622	0.179372
0.795276	0.023622	0.162887
0.803150	0.023622	0.147019
0.811024	0.023622	0.131822
0.818898	0.023622	0.117343
0.826772	0.023622	0.103628
0.834646	0.023622	0.090717
0.842520	0.023622	0.078643
0.850394	0.023622	0.067437
0.858268	0.023622	0.057119
0.866142	0.023622	0.047706
0.874016	0.023622	0.039206
0.881890	0.023622	0.031617
0.889764	0.023622	0.024930
0.897638	0.023622	0.019124
0.905512	0.023622	0.014167
0.913386	0.023622	0.010015
0.921260	0.023622	0.006611
0.929134	0.023622	0.003881
0.937008	0.023622	0.001738
0.944882	0.023622	0.000080
0.952756	0.023622	-0.001209
0.960630	0.023622	-0.002252
0.968504	0.023622	-0.003166
0.976378	0.023622	-0.004039
0.984252	0.023622	-0.004894
0.992126	0.023622	-0.005628
1.000000	0.023622	-0.005957
0.000000	0.031496	-0.010078
0.007874	0.031496	-0.004122
0.015748	0.031496	0.001281
0.023622	0.031496	0.006309
0.031496	0.031496	0.011134
0.039370	0.031496	0.015932
0.047244	0.031496	0.020868
0.055118	0.031496	0.026091
0.062992	0.031496	0.031724
0.070866	0.031496	0.037864
0.078740	0.031496	0.044584
0.086614	0.031496	0.051936
0.094488	0.031496	0.059951
0.102362	0.031496	0.068646
0.110236	0.031496	0.078022
0.118110	0.031496	0.088072
0.125984	0.031496	0.098779
0.133858	0.031496	0.110117
0.141732	0.031496	0.122058
0.149606	0.031496	0.134568
0.157480	0.031496	0.147609
0.165354	0.031496	0.161142
0.173228	0.031496	0.175125
0.181102	0.031496	0.189518
0.188976	0.031496	0.204276
0.196850	0.031496	0.219357
0.204724	0.031496	0.234717
0.212598	0.031496	0.250314
0.220472	0.031496	0.266105
0.228346	0.031496	0.282047
0.236220	0.031496	0.298100
0.244094	0.031496	0.314222
0.251969	0.031496	0.330373
0.259843	0.031496	0.346513
0.267717	0.031496	0.362603
0.275591	0.031496	0.378606
0.283465	0.031496	0.394482
0.291339	0.031496	0.410196
0.299213	0.031496	0.425709
0.307087	0.031496	0.440986
0.314961	0.031496	0.455991
0.322835	0.031496	0.470689
0.330709	0.031496	0.485045
0.338583	0.031496	0.499025
0.346457	0.031496	0.512594
0.354331	0.031496	0.525720
0.362205	0.031496	0.538369
0.370079	0.031496	0.550510
0.377953	0.031496	0.562111
0.385827	0.031496	0.573140
0.393701	0.031496	0.583567
0.401575	0.031496	0.593364
0.409449	0.031496	0.602500
0.417323	0.031496	0.610950
0.425197	0.031496	0.618686
0.433071	0.031496	0.625683
0.440945	0.031496	0.631917
0.448819	0.031496	0.637366
0.456693	0.031496	0.642009
0.464567	0.031496	0.645827
0.472441	0.031496	0.648801
0.480315	0.031496	0.650918
0.488189	0.031496	0.652162
0.496063	0.031496	0.652524
0.503937	0.031496	0.651994
0.511811	0.031496	0.650566
0.519685	0.031496	0.648235
0.527559	0.031496	0.645001
0.535433	0.031496	0.640865
0.543307	0.031496	0.635831
0.551181	0.031496	0.629906
0.559055	0.031496	0.623101
0.566929	0.031496	0.615429
0.574803	0.031496	0.606905
0.582677	0.031496	0.597549
0.590551	0.031496	0.587383
0.598425	0.031496	0.576433
0.606299	0.031496	0.564727
0.614173	0.031496	0.552297
0.622047	0.031496	0.539176
0.629921	0.031496	0.525402
0.637795	0.031496	0.511015
0.645669	0.031496	0.496058
0.653543	0.031496	0.480575
0.661417	0.031496	0.464615
0.669291	0.031496	0.448227
0.677165	0.031496	0.431463
0.685039	0.031496	0.414377
0.692913	0.031496	0.397025
0.700787	0.031496	0.379462
0.708661	0.031496	0.361747
0.716535	0.031496	0.343939
0.724409	0.031496	0.326098
0.732283	0.031496	0.308283
0.740157	0.031496	0.290555
0.748031	0.031496	0.272973
0.755906	0.031496	0.255597
0.763780	0.031496	0.238484
0.771654	0.031496	0.221693
0.779528	0.031496	0.205279
0.787402	0.031496	0.189295
0.795276	0.031496	0.173793
0.803150	0.031496	0.158821
0.811024	0.031496	0.144426
0.818898	0.031496	0.130650
0.826772	0.031496	0.117529
0.834646	0.031496	0.105100
0.842520	0.031496	0.093389
0.850394	0.031496	0.082421
0.858268	0.031496	0.072214
0.866142	0.031496	0.062778
0.874016	0.031496	0.054117
0.881890	0.031496	0.046226
0.889764	0.031496	0.039094
0.897638	0.031496	0.032698
0.905512	0.031496	0.027006
0.913386	0.031496	0.021974
0.921260	0.031496	0.017547
0.929134	0.031496	0.013659
0.937008	0.031496	0.010231
0.944882	0.031496	0.007175
0.952756	0.031496	0.004393
0.960630	0.031496	0.001788
0.968504	0.031496	-0.000729
0.976378	0.031496	-0.003223
0.984252	0.031496	-0.005712
0.992126	0.031496	-0.008148
1.000000	0.031496	-0.010414
0.000000	0.039370	-0.012396
0.007874	0.039370	-0.004268
0.015748	0.039370	0.003024
0.023622	0.039370	0.009718
0.031496	0.039370	0.016020
0.039370	0.039370	0.022114
0.047244	0.039370	0.028167
0.055118	0.039370	0.034327
0.062992	0.039370	0.040719
0.070866	0.039370	0.047446
0.078740	0.039370	0.054589
0.086614	0.039370	0.062209
0.094488	0.039370	0.070351
0.102362	0.039370	0.079042
0.110236	0.039370	0.088297
0.118110	0.039370	0.098120
0.125984	0.039370	0.108505
0.133858	0.039370	0.119438
0.141732	0.039370	0.130901
0.149606	0.039370	0.142868
0.157480	0.039370	0.155311
0.165354	0.039370	0.168197
0.173228	0.039370	0.181493
0.181102	0.039370	0.195161
0.188976	0.039370	0.209165
0.196850	0.039370	0.223466
0.204724	0.039370	0.238025
0.212598	0.039370	0.252802
0.220472	0.039370	0.267757
0.228346	0.039370	0.282853
0.236220	0.039370	0.298048
0.244094	0.039370	0.313304
0.251969	0.039370	0.328583
0.259843	0.039370	0.343846
0.267717	0.039370	0.359057
0.275591	0.039370	0.374177
0.283465	0.039370	0.389170
0.291339	0.039370	0.404000
0.299213	0.039370	0.418632
0.307087	0.039370	0.433030
0.314961	0.039370	0.447160
0.322835	0.039370	0.460989
0.330709	0.039370	0.474482
0.338583	0.039370	0.487607
0.346457	0.039370	0.500333
0.354331	0.039370	0.512627
0.362205	0.039370	0.524458
0.370079	0.039370	0.535797
0.377953	0.039370	0.546614
0.385827	0.039370	0.556881
0.393701	0.039370	0.566569
0.401575	0.039370	0.575652
0.409449	0.039370	0.584104
0.417323	0.039370	0.591901
0.425197	0.039370	0.599019
0.433071	0.039370	0.605435
0.440945	0.039370	0.611130
0.448819	0.039370	0.616083
0.456693	0.039370	0.620277
0.464567	0.039370	0.623695
0.472441	0.039370	0.626324
0.480315	0.039370	0.628150
0.488189	0.039370	0.629163
0.496063	0.039370	0.629355
0.503937	0.039370	0.628718
0.511811	0.039370	0.627250
0.519685	0.039370	0.624948
0.527559	0.039370	0.621813
0.535433	0.039370	0.617848
0.543307	0.039370	0.613058
0.551181	0.039370	0.607452
0.559055	0.039370	0.601040
0.566929	0.039370	0.593835
0.574803	0.039370	0.585853
0.582677	0.039370	0.577114
0.590551	0.039370	0.567637
0.598425	0.039370	0.557448
0.606299	0.039370	0.546572
0.614173	0.039370	0.535039
0.622047	0.039370	0.522880
0.629921	0.039370	0.510129
0.637795	0.039370	0.496822
0.645669	0.039370	0.482997
0.653543	0.039370	0.468695
0.661417	0.039370	0.453960
0.669291	0.039370	0.438834
0.677165	0.039370	0.423364
0.685039	0.039370	0.407597
0.692913	0.039370	0.391583
0.700787	0.039370	0.375372
0.708661	0.039370	0.359014
0.716535	0.039370	0.342561
0.724409	0.039370	0.326065
0.732283	0.039370	0.309580
0.740157	0.039370	0.293156
0.748031	0.039370	0.276848
0.755906	0.039370	0.260705
0.763780	0.039370	0.244779
0.771654	0.039370	0.229120
0.779528	0.039370	0.213776
0.787402	0.039370	0.198793
0.795276	0.039370	0.184216
0.803150	0.039370	0.170086
0.811024	0.039370	0.156443
0.818898	0.039370	0.143323
0.826772	0.039370	0.130758
0.834646	0.039370	0.118776
0.842520	0.039370	0.107401
0.850394	0.039370	0.096651
0.858268	0.039370	0.086540
0.866142	0.039370	0.077074
0.874016	0.039370	0.068255
0.881890	0.039370	0.060075
0.889764	0.039370	0.052520
0.897638	0.039370	0.045566
0.905512	0.039370	0.039182
0.913386	0.039370	0.033325
0.921260	0.039370	0.027944
0.929134	0.039370	0.022977
0.937008	0.039370	0.018353
0.944882	0.039370	0.013995
0.952756	0.039370	0.009819
0.960630	0.039370	0.005741
0.968504	0.039370	0.001684
0.976378	0.039370	-0.002411
0.984252	0.039370	-0.006582
0.992126	0.039370	-0.010838
1.000000	0.039370	-0.015175
0.000000	0.047244	-0.013560
0.007874	0.047244	-0.003576
0.015748	0.047244	0.005364
0.023622	0.047244	0.013520
0.031496	0.047244	0.021114
0.039370	0.047244	0.028337
0.047244	0.047244	0.035360
0.055118	0.047244	0.042332
0.062992	0.047244	0.049380
0.070866	0.047244	0.056612
0.078740	0.047244	0.064116
0.086614	0.047244	0.071960
0.094488	0.047244	0.080199
0.102362	0.047244	0.088869
0.110236	0.047244	0.097996
0.118110	0.047244	0.107593
0.125984	0.047244	0.117666
0.133858	0.047244	0.128209
0.141732	0.047244	0.139212
0.149606	0.047244	0.150658
0.157480	0.047244	0.162527
0.165354	0.047244	0.174793
0.173228	0.047244	0.187428
0.181102	0.047244	0.200401
0.188976	0.047244	0.213680
0.196850	0.047244	0.227230
0.204724	0.047244	0.241016
0.212598	0.047244	0.255003
0.220472	0.047244	0.269153
0.228346	0.047244	0.283429
0.236220	0.047244	0.297796
0.244094	0.047244	0.312215
0.251969	0.047244	0.326651
0.259843	0.047244	0.341066
0.267717	0.047244	0.355424
0.275591	0.047244	0.369690
0.283465	0.047244	0.383828
0.291339	0.047244	0.397804
0.299213	0.047244	0.411583
0.307087	0.047244	0.425132
0.314961	0.047244	0.438417
0.322835	0.047244	0.451406
0.330709	0.047244	0.464068
0.338583	0.047244	0.476370
0.346457	0.047244	0.488284
0.354331	0.047244	0.499778
0.362205	0.047244	0.510824
0.370079	0.047244	0.521395
0.377953	0.047244	0.531462
0.385827	0.047244	0.541000
0.393701	0.047244	0.549984
0.401575	0.047244	0.558388
0.409449	0.047244	0.566191
0.417323	0.047244	0.573370
0.425197	0.047244	0.579905
0.433071	0.047244	0.585775
0.440945	0.047244	0.590964
0.448819	0.047244	0.595455
0.456693	0.047244	0.599233
0.464567	0.047244	0.602284
0.472441	0.047244	0.604597
0.480315	0.047244	0.606162
0.488189	0.047244	0.606972
0.496063	0.047244	0.607019
0.503937	0.047244	0.606301
0.511811	0.047244	0.604815
0.519685	0.047244	0.602561
0.527559	0.047244	0.599541
0.535433	0.047244	0.595760
0.543307	0.047244	0.591224
0.551181	0.047244	0.585943
0.559055	0.047244	0.579927
0.566929	0.047244	0.573189
0.574803	0.047244	0.565745
0.582677	0.047244	0.557614
0.590551	0.047244	0.548815
0.598425	0.047244	0.539370
0.606299	0.047244	0.529304
0.614173	0.047244	0.518644
0.622047	0.047244	0.507418
0.629921	0.047244	0.495657
0.637795	0.047244	0.483392
0.645669	0.047244	0.470660
0.653543	0.047244	0.457495
0.661417	0.047244	0.443936
0.669291	0.047244	0.430021
0.677165	0.047244	0.415790
0.685039	0.047244	0.401287
0.692913	0.047244	0.386552
0.700787	0.047244	0.371631
0.708661	0.047244	0.356567
0.716535	0.047244	0.341405
0.724409	0.047244	0.326190
0.732283	0.047244	0.310969
0.740157	0.047244	0.295785
0.748031	0.047244	0.280684
0.755906	0.047244	0.265711
0.763780	0.047244	0.250909
0.771654	0.047244	0.236321
0.779528	0.047244	0.221988
0.787402	0.047244	0.207950
0.795276	0.047244	0.194245
0.803150	0.047244	0.180909
0.811024	0.047244	0.167974
0.818898	0.047244	0.155470
0.826772	0.047244	0.143424
0.834646	0.047244	0.131860
0.842520	0.047244	0.120796
0.850394	0.047244	0.110247
0.858268	0.047244	0.100222
0.866142	0.047244	0.090725
0.874016	0.047244	0.081752
0.881890	0.047244	0.073296
0.889764	0.047244	0.065341
0.897638	0.047244	0.057862
0.905512	0.047244	0.050828
0.913386	0.047244	0.044198
0.921260	0.047244	0.037925
0.929134	0.047244	0.031950
0.937008	0.047244	0.026210
0.944882	0.047244	0.020634
0.952756	0.047244	0.015146
0.960630	0.047244	0.009671
0.968504	0.047244	0.004136
0.976378	0.047244	-0.001524
0.984252	0.047244	-0.007368
0.992126	0.047244	-0.013448
1.000000	0.047244	-0.019828
0.000000	0.055118	-0.013354
0.007874	0.055118	-0.001839
0.015748	0.055118	0.008487
0.023622	0.055118	0.017885
0.031496	0.055118	0.026577
0.039370	0.055118	0.034760
0.047244	0.055118	0.042605
0.055118	0.055118	0.050261
0.062992	0.055118	0.057858
0.070866	0.055118	0.065507
0.078740	0.055118	0.073302
0.086614	0.055118	0.081317
0.094488	0.055118	0.089612
0.102362	0.055118	0.098233
0.110236	0.055118	0.107215
0.118110	0.055118	0.116579
0.125984	0.055118	0.126337
0.133858	0.055118	0.136494
0.141732	0.055118	0.147047
0.149606	0.055118	0.157987
0.157480	0.055118	0.169298
0.165354	0.055118	0.180963
0.173228	0.055118	0.192958
0.181102	0.055118	0.205258
0.188976	0.055118	0.217834
0.196850	0.055118	0.230658
0.204724	0.055118	0.243696
0.212598	0.055118	0.256917
0.220472	0.055118	0.270286
0.228346	0.055118	0.283770
0.236220	0.055118	0.297333
0.244094	0.055118	0.310941
0.251969	0.055118	0.324558
0.259843	0.055118	0.338150
0.267717	0.055118	0.351683
0.275591	0.055118	0.365121
0.283465	0.055118	0.378430
0.291339	0.055118	0.391579
0.299213	0.055118	0.404532
0.307087	0.055118	0.417259
0.314961	0.055118	0.429727
0.322835	0.055118	0.441906
0.330709	0.055118	0.453764
0.338583	0.055118	0.465274
0.346457	0.055118	0.476405
0.354331	0.055118	0.487130
0.362205	0.055118	0.497423
0.370079	0.055118	0.507257
0.377953	0.055118	0.516607
0.385827	0.055118	0.525450
0.393701	0.055118	0.533762
0.401575	0.055118	0.541522
0.409449	0.055118	0.548709
0.417323	0.055118	0.555304
0.425197	0.055118	0.561289
0.433071	0.055118	0.566648
0.440945	0.055118	0.571364
0.448819	0.055118	0.575426
0.456693	0.055118	0.578819
0.464567	0.055118	0.581535
0.472441	0.055118	0.583563
0.480315	0.055118	0.584897
0.488189	0.055118	0.585530
0.496063	0.055118	0.585460
0.503937	0.055118	0.584683
0.511811	0.055118	0.583201
0.519685	0.055118	0.581014
0.527559	0.055118	0.578127
0.535433	0.055118	0.574545
0.543307	0.055118	0.570275
0.551181	0.055118	0.565326
0.559055	0.055118	0.559711
0.566929	0.055118	0.553442
0.574803	0.055118	0.546535
0.582677	0.055118	0.539006
0.590551	0.055118	0.530874
0.598425	0.055118	0.522160
0.606299	0.055118	0.512887
0.614173	0.055118	0.503078
0.622047	0.055118	0.492760
0.629921	0.055118	0.481959
0.637795	0.055118	0.470706
0.645669	0.055118	0.459029
0.653543	0.055118	0.446961
0.661417	0.055118	0.434535
0.669291	0.055118	0.421785
0.677165	0.055118	0.408745
0.685039	0.055118	0.395453
0.692913	0.055118	0.381945
0.700787	0.055118	0.368258
0.708661	0.055118	0.354430
0.716535	0.055118	0.340501
0.724409	0.055118	0.326508
0.732283	0.055118	0.312490
0.740157	0.055118	0.298486
0.748031	0.055118	0.284534
0.755906	0.055118	0.270672
0.763780	0.055118	0.256937
0.771654	0.055118	0.243365
0.779528	0.055118	0.229991
0.787402	0.055118	0.216848
0.795276	0.055118	0.203967
0.803150	0.055118	0.191380
0.811024	0.055118	0.179112
0.818898	0.055118	0.167189
0.826772	0.055118	0.155632
0.834646	0.055118	0.144461
0.842520	0.055118	0.133689
0.850394	0.055118	0.123326
0.858268	0.055118	0.113380
0.866142	0.055118	0.103850
0.874016	0.055118	0.094732
0.881890	0.055118	0.086015
0.889764	0.055118	0.077683
0.897638	0.055118	0.069710
0.905512	0.055118	0.062067
0.913386	0.055118	0.054713
0.921260	0.055118	0.047605
0.929134	0.055118	0.040688
0.937008	0.055118	0.033903
0.944882	0.055118	0.027183
0.952756	0.055118	0.020460
0.960630	0.055118	0.013662
0.968504	0.055118	0.006715
0.976378	0.055118	-0.000454
0.984252	0.055118	-0.007918
0.992126	0.055118	-0.015758
1.000000	0.055118	-0.024075
0.000000	0.062992	-0.011651
0.007874	0.062992	0.001087
0.015748	0.062992	0.012539
0.023622	0.062992	0.022954
0.031496	0.062992	0.032551
0.039370	0.062992	0.041522
0.047244	0.062992	0.050038
0.055118	0.062992	0.058248
0.062992	0.062992	0.066284
0.070866	0.062992	0.074258
0.078740	0.062992	0.082267
0.086614	0.062992	0.090390
0.094488	0.062992	0.098694
0.102362	0.062992	0.107231
0.110236	0.062992	0.116042
0.118110	0.062992	0.125154
0.125984	0.062992	0.134589
0.133858	0.062992	0.144357
0.141732	0.062992	0.154462
0.149606	0.062992	0.164900
0.157480	0.062992	0.175664
0.165354	0.062992	0.186739
0.173228	0.062992	0.198109
0.181102	0.062992	0.209752
0.188976	0.062992	0.221644
0.196850	0.062992	0.233760
0.204724	0.062992	0.246070
0.212598	0.062992	0.258546
0.220472	0.062992	0.271156
0.228346	0.062992	0.283868
0.236220	0.062992	0.296650
0.244094	0.062992	0.309469
0.251969	0.062992	0.322291
0.259843	0.062992	0.335084
0.267717	0.062992	0.347813
0.275591	0.062992	0.360447
0.283465	0.062992	0.372953
0.291339	0.062992	0.385298
0.299213	0.062992	0.397451
0.307087	0.062992	0.409382
0.314961	0.062992	0.421059
0.322835	0.062992	0.432454
0.330709	0.062992	0.443537
0.338583	0.062992	0.454281
0.346457	0.062992	0.464659
0.354331	0.062992	0.474645
0.362205	0.062992	0.484214
0.370079	0.062992	0.493342
0.377953	0.062992	0.502006
0.385827	0.062992	0.510184
0.393701	0.062992	0.517857
0.401575	0.062992	0.525004
0.409449	0.062992	0.531608
0.417323	0.062992	0.537653
0.425197	0.062992	0.543121
0.433071	0.062992	0.548000
0.440945	0.062992	0.552278
0.448819	0.062992	0.555942
0.456693	0.062992	0.558983
0.464567	0.062992	0.561393
0.472441	0.062992	0.563166
0.480315	0.062992	0.564297
0.488189	0.062992	0.564782
0.496063	0.062992	0.564619
0.503937	0.062992	0.563809
0.511811	0.062992	0.562353
0.519685	0.062992	0.560253
0.527559	0.062992	0.557516
0.535433	0.062992	0.554147
0.543307	0.062992	0.550155
0.551181	0.062992	0.545550
0.559055	0.062992	0.540342
0.566929	0.062992	0.534544
0.574803	0.062992	0.528173
0.582677	0.062992	0.521242
0.590551	0.062992	0.513771
0.598425	0.062992	0.505777
0.606299	0.062992	0.497282
0.614173	0.062992	0.488306
0.622047	0.062992	0.478874